AtomicNumber	Abbreviation	StandardName	Name	Block	Group	Period	Series	AtomicWeight	Density	AbsoluteMeltingPoint	MeltingPoint	AbsoluteBoilingPoint	BoilingPoint	SpecificHeat	ElectroNegativity	CrustAbundance	MohsHardness	VickersHardness	BrinellHardness	AtomicRadius	VanDerWaalsRadius	CovalentRadius	IonizationEnergies
98	Cf	Californium	californium	f		7	Actinide	251	15100	1925.15	1652	1173	899.85	NOT_AVAILABLE	1.3	0	NOT_AVAILABLE	NOT_AVAILABLE	NOT_AVAILABLE	NOT_AVAILABLE	NOT_AVAILABLE	NOT_AVAILABLE	{608}
99	Es	Einsteinium	einsteinium	f		7	Actinide	252	13500	1133.15	860	NOT_AVAILABLE	NOT_AVAILABLE	NOT_AVAILABLE	1.3	0	NOT_AVAILABLE	NOT_AVAILABLE	NOT_AVAILABLE	NOT_AVAILABLE	NOT_AVAILABLE	NOT_AVAILABLE	{619}
100	Fm	Fermium	fermium	f		7	Actinide	257	NOT_AVAILABLE	1800	1526.85	NOT_AVAILABLE	NOT_AVAILABLE	NOT_AVAILABLE	1.3	0	NOT_AVAILABLE	NOT_AVAILABLE	NOT_AVAILABLE	NOT_AVAILABLE	NOT_AVAILABLE	NOT_AVAILABLE	{627}
101	Md	Mendelevium	mendelevium	f		7	Actinide	258	NOT_AVAILABLE	1100	826.85	NOT_AVAILABLE	NOT_AVAILABLE	NOT_AVAILABLE	1.3	0	NOT_AVAILABLE	NOT_AVAILABLE	NOT_AVAILABLE	NOT_AVAILABLE	NOT_AVAILABLE	NOT_AVAILABLE	{635}
102	No	Nobelium	nobelium	f		7	Actinide	259	NOT_AVAILABLE	1100	826.85	NOT_AVAILABLE	NOT_AVAILABLE	NOT_AVAILABLE	1.3	0	NOT_AVAILABLE	NOT_AVAILABLE	NOT_AVAILABLE	NOT_AVAILABLE	NOT_AVAILABLE	NOT_AVAILABLE	{642}
103	Lr	Lawrencium	lawrencium	d	3	7	Actinide	262	NOT_AVAILABLE	1900	1626.85	NOT_AVAILABLE	NOT_AVAILABLE	NOT_AVAILABLE	1.3	0	NOT_AVAILABLE	NOT_AVAILABLE	NOT_AVAILABLE	NOT_AVAILABLE	NOT_AVAILABLE	NOT_AVAILABLE	{470}
104	Rf	Rutherfordium	rutherfordium	d	4	7	TransitionMetal	267	NOT_AVAILABLE	NOT_AVAILABLE	NOT_AVAILABLE	NOT_AVAILABLE	NOT_AVAILABLE	NOT_AVAILABLE	NOT_AVAILABLE	0	NOT_AVAILABLE	NOT_AVAILABLE	NOT_AVAILABLE	NOT_AVAILABLE	NOT_AVAILABLE	NOT_AVAILABLE	{580}
105	Db	Dubnium	dubnium	d	5	7	TransitionMetal	268	NOT_AVAILABLE	NOT_AVAILABLE	NOT_AVAILABLE	NOT_AVAILABLE	NOT_AVAILABLE	NOT_AVAILABLE	NOT_AVAILABLE	0	NOT_AVAILABLE	NOT_AVAILABLE	NOT_AVAILABLE	NOT_AVAILABLE	NOT_AVAILABLE	NOT_AVAILABLE	
106	Sg	Seaborgium	seaborgium	d	6	7	TransitionMetal	269	NOT_AVAILABLE	NOT_AVAILABLE	NOT_AVAILABLE	NOT_AVAILABLE	NOT_AVAILABLE	NOT_AVAILABLE	NOT_AVAILABLE	0	NOT_AVAILABLE	NOT_AVAILABLE	NOT_AVAILABLE	NOT_AVAILABLE	NOT_AVAILABLE	NOT_AVAILABLE	
107	Bh	Bohrium	bohrium	d	7	7	TransitionMetal	270	NOT_AVAILABLE	NOT_AVAILABLE	NOT_AVAILABLE	NOT_AVAILABLE	NOT_AVAILABLE	NOT_AVAILABLE	NOT_AVAILABLE	0	NOT_AVAILABLE	NOT_AVAILABLE	NOT_AVAILABLE	NOT_AVAILABLE	NOT_AVAILABLE	NOT_AVAILABLE	
108	Hs	Hassium	hassium	d	8	7	TransitionMetal	269	NOT_AVAILABLE	NOT_AVAILABLE	NOT_AVAILABLE	NOT_AVAILABLE	NOT_AVAILABLE	NOT_AVAILABLE	NOT_AVAILABLE	0	NOT_AVAILABLE	NOT_AVAILABLE	NOT_AVAILABLE	NOT_AVAILABLE	NOT_AVAILABLE	NOT_AVAILABLE	
109	Mt	Meitnerium	meitnerium	d	9	7	NOT_KNOWN	278	NOT_AVAILABLE	NOT_AVAILABLE	NOT_AVAILABLE	NOT_AVAILABLE	NOT_AVAILABLE	NOT_AVAILABLE	NOT_AVAILABLE	0	NOT_AVAILABLE	NOT_AVAILABLE	NOT_AVAILABLE	NOT_AVAILABLE	NOT_AVAILABLE	NOT_AVAILABLE	
110	Ds	Darmstadtium	darmstadtium	d	10	7	NOT_KNOWN	281	NOT_AVAILABLE	NOT_AVAILABLE	NOT_AVAILABLE	NOT_AVAILABLE	NOT_AVAILABLE	NOT_AVAILABLE	NOT_AVAILABLE	0	NOT_AVAILABLE	NOT_AVAILABLE	NOT_AVAILABLE	NOT_AVAILABLE	NOT_AVAILABLE	NOT_AVAILABLE	
111	Rg	Roentgenium	roentgenium	d	11	7	NOT_KNOWN	281	NOT_AVAILABLE	NOT_AVAILABLE	NOT_AVAILABLE	NOT_AVAILABLE	NOT_AVAILABLE	NOT_AVAILABLE	NOT_AVAILABLE	0	NOT_AVAILABLE	NOT_AVAILABLE	NOT_AVAILABLE	NOT_AVAILABLE	NOT_AVAILABLE	NOT_AVAILABLE	
112	Cn	Copernicium	copernicium	d	12	7	TransitionMetal	285	NOT_AVAILABLE	NOT_AVAILABLE	NOT_AVAILABLE	NOT_AVAILABLE	NOT_AVAILABLE	NOT_AVAILABLE	NOT_AVAILABLE	0	NOT_AVAILABLE	NOT_AVAILABLE	NOT_AVAILABLE	NOT_AVAILABLE	NOT_AVAILABLE	NOT_AVAILABLE	
113	Uut	Ununtrium	ununtrium	p	13	7	NOT_KNOWN	286	NOT_AVAILABLE	NOT_AVAILABLE	NOT_AVAILABLE	NOT_AVAILABLE	NOT_AVAILABLE	NOT_AVAILABLE	NOT_AVAILABLE	0	NOT_AVAILABLE	NOT_AVAILABLE	NOT_AVAILABLE	NOT_AVAILABLE	NOT_AVAILABLE	NOT_AVAILABLE	
114	Fl	Flerovium	flerovium	p	14	7	NOT_KNOWN	289	NOT_AVAILABLE	NOT_AVAILABLE	NOT_AVAILABLE	NOT_AVAILABLE	NOT_AVAILABLE	NOT_AVAILABLE	NOT_AVAILABLE	0	NOT_AVAILABLE	NOT_AVAILABLE	NOT_AVAILABLE	NOT_AVAILABLE	NOT_AVAILABLE	NOT_AVAILABLE	
115	Uup	Ununpentium	ununpentium	p	15	7	NOT_KNOWN	288	NOT_AVAILABLE	NOT_AVAILABLE	NOT_AVAILABLE	NOT_AVAILABLE	NOT_AVAILABLE	NOT_AVAILABLE	NOT_AVAILABLE	0	NOT_AVAILABLE	NOT_AVAILABLE	NOT_AVAILABLE	NOT_AVAILABLE	NOT_AVAILABLE	NOT_AVAILABLE	
116	Lv	Livermorium	livermorium	p	16	7	NOT_KNOWN	293	NOT_AVAILABLE	NOT_AVAILABLE	NOT_AVAILABLE	NOT_AVAILABLE	NOT_AVAILABLE	NOT_AVAILABLE	NOT_AVAILABLE	0	NOT_AVAILABLE	NOT_AVAILABLE	NOT_AVAILABLE	NOT_AVAILABLE	NOT_AVAILABLE	NOT_AVAILABLE	
117	Uus	Ununseptium	ununseptium	p	17	7	NOT_KNOWN	294	NOT_AVAILABLE	NOT_AVAILABLE	NOT_AVAILABLE	NOT_AVAILABLE	NOT_AVAILABLE	NOT_AVAILABLE	NOT_AVAILABLE	0	NOT_AVAILABLE	NOT_AVAILABLE	NOT_AVAILABLE	NOT_AVAILABLE	NOT_AVAILABLE	NOT_AVAILABLE	
118	Uuo	Ununoctium	ununoctium	p	18	7	NOT_KNOWN	294	NOT_AVAILABLE	NOT_AVAILABLE	NOT_AVAILABLE	NOT_AVAILABLE	NOT_AVAILABLE	NOT_AVAILABLE	NOT_AVAILABLE	0	NOT_AVAILABLE	NOT_AVAILABLE	NOT_AVAILABLE	NOT_AVAILABLE	NOT_AVAILABLE	NOT_AVAILABLE	